LAMMPS data file for SPC/E water box

1563 atoms
1042 bonds
521 angles
2 atom types
1 bond types
1 angle types

0.0 25.002114056010154 xlo xhi
0.0 25.002114056010154 ylo yhi
0.0 25.002114056010154 zlo zhi

Masses

1 15.9994  # O
2 1.008    # H

Atoms # full

    1     1     1    -0.8476       -5.824404        0.203212        0.300083
    2     1     2     0.4238       -4.870059        0.459882        0.147288
    3     1     2     0.4238       -6.236831        0.831861        0.959509
    4     2     1    -0.8476      -12.285353        8.903286       -4.148945
    5     2     2     0.4238      -11.338364        9.224036       -4.167115
    6     2     2     0.4238      -12.298869        7.903609       -4.173435
    7     3     1    -0.8476        3.285060       -9.656981        3.836560
    8     3     2     0.4238        3.888722       -9.390678        4.588009
    9     3     2     0.4238        3.835837       -9.934372        3.049263
   10     4     1    -0.8476       -3.141188       -7.571011        5.351061
   11     4     2     0.4238       -4.055582       -7.504350        4.951760
   12     4     2     0.4238       -2.463785       -7.255494        4.686446
   13     5     1    -0.8476       -4.012143        5.857032        4.985264
   14     5     2     0.4238       -4.046020        6.468493        4.194715
   15     5     2     0.4238       -3.568984        4.999383        4.724140
   16     6     1    -0.8476       -2.291617      -11.308367       -1.608498
   17     6     2     0.4238       -2.763414      -12.160690       -1.834228
   18     6     2     0.4238       -2.764081      -10.856583       -0.851658
   19     7     1    -0.8476       -5.157846       -9.630266        0.786120
   20     7     2     0.4238       -4.263425       -9.458157        1.198903
   21     7     2     0.4238       -5.759632       -8.850264        0.958134
   22     8     1    -0.8476       -0.068186        1.734689      -12.336600
   23     8     2     0.4238       -0.859782        2.115882      -11.859036
   24     8     2     0.4238        0.737940        2.294519      -12.144535
   25     9     1    -0.8476       -4.290652       -6.583722        7.048326
   26     9     2     0.4238       -4.724615       -7.484652        7.047327
   27     9     2     0.4238       -4.090864       -6.311383        7.989631
   28    10     1    -0.8476       -3.254424       -8.606433       11.354571
   29    10     2     0.4238       -2.550313       -9.281943       11.135682
   30    10     2     0.4238       -2.826286       -7.714513       11.500565
   31    11     1    -0.8476        2.815346        7.563395        7.746826
   32    11     2     0.4238        3.492483        8.074018        8.276685
   33    11     2     0.4238        3.171533        6.651679        7.541783
   34    12     1    -0.8476      -10.093455       -9.251890       -9.594718
   35    12     2     0.4238      -10.415433       -9.542901      -10.495630
   36    12     2     0.4238       -9.651699      -10.021922       -9.134239
   37    13     1    -0.8476        4.598332        5.160260       -3.738227
   38    13     2     0.4238        4.077396        5.959567       -4.037781
   39    13     2     0.4238        5.020317        4.721345       -4.531588
   40    14     1    -0.8476       -5.442493        0.845999       10.416198
   41    14     2     0.4238       -4.797235        0.127827       10.155677
   42    14     2     0.4238       -5.129162        1.723216       10.052258
   43    15     1    -0.8476       -7.873286        8.814014      -11.104295
   44    15     2     0.4238       -7.752137        9.673100      -10.607008
   45    15     2     0.4238       -7.127195        8.188656      -10.875356
   46    16     1    -0.8476       -0.465621       10.050695       -0.748926
   47    16     2     0.4238       -1.313138        9.553205       -0.933912
   48    16     2     0.4238        0.246429        9.741449       -1.379395
   49    17     1    -0.8476      -11.662138       -5.503735        4.834033
   50    17     2     0.4238      -11.457988       -4.532847        4.959336
   51    17     2     0.4238      -12.482593       -5.601487        4.270618
   52    18     1    -0.8476       -8.091267        8.495825        7.400015
   53    18     2     0.4238       -7.245350        7.982814        7.545770
   54    18     2     0.4238       -7.920922        9.469315        7.553107
   55    19     1    -0.8476       -4.711217        1.804891        6.640266
   56    19     2     0.4238       -4.070601        1.283866        6.076223
   57    19     2     0.4238       -4.393044        1.808841        7.588364
   58    20     1    -0.8476        2.005618       10.037887        1.184302
   59    20     2     0.4238        1.377289        9.657576        0.505651
   60    20     2     0.4238        1.631912       10.894125        1.541146
   61    21     1    -0.8476        5.845628       -5.974361        7.351530
   62    21     2     0.4238        4.946582       -6.411815        7.332816
   63    21     2     0.4238        5.732137       -4.982135        7.403938
   64    22     1    -0.8476       -9.839260        0.915427       -4.225316
   65    22     2     0.4238       -9.938914       -0.078619       -4.269374
   66    22     2     0.4238      -10.736360        1.334076       -4.083609
   67    23     1    -0.8476      -11.401497        2.993330        9.558155
   68    23     2     0.4238      -10.413917        3.075522        9.692057
   69    23     2     0.4238      -11.645771        2.027995        9.465433
   70    24     1    -0.8476       -5.024087       10.682124        4.295104
   71    24     2     0.4238       -5.928387       10.368087        4.005930
   72    24     2     0.4238       -4.755985       11.474791        3.747437
   73    25     1    -0.8476      -11.704813       -2.304824       -6.190624
   74    25     2     0.4238      -11.046147       -2.674488       -5.535256
   75    25     2     0.4238      -11.510594       -1.336455       -6.347718
   76    26     1    -0.8476        2.968813        8.085783        0.833158
   77    26     2     0.4238        3.713959        7.483803        1.120173
   78    26     2     0.4238        3.266688        8.635549        0.052668
   79    27     1    -0.8476       -6.199951       -9.284335      -12.479349
   80    27     2     0.4238       -7.077527       -9.763698      -12.487825
   81    27     2     0.4238       -5.455679       -9.952297      -12.474524
   82    28     1    -0.8476       -2.828785        2.951696       -6.067294
   83    28     2     0.4238       -1.847913        3.113844       -6.174985
   84    28     2     0.4238       -3.021873        1.979197       -6.198062
   85    29     1    -0.8476        0.159393       -0.745664       -1.951070
   86    29     2     0.4238       -0.449424       -1.122609       -1.253033
   87    29     2     0.4238        0.502879        0.143464       -1.648404
   88    30     1    -0.8476       -9.462420       -4.352753       -2.742997
   89    30     2     0.4238       -8.955099       -4.529095       -3.586518
   90    30     2     0.4238       -9.443939       -5.169614       -2.166339
   91    31     1    -0.8476       -2.399277       -0.759406        4.293274
   92    31     2     0.4238       -2.917648       -1.608197        4.397415
   93    31     2     0.4238       -1.485005       -0.877893        4.680838
   94    32     1    -0.8476       -3.449023        1.489014        3.300134
   95    32     2     0.4238       -2.487890        1.213972        3.324142
   96    32     2     0.4238       -3.508785        2.485032        3.232935
   97    33     1    -0.8476       10.767874       10.150464        8.983809
   98    33     2     0.4238       10.379652        9.229787        8.943348
   99    33     2     0.4238       10.028513       10.823875        8.984847
  100    34     1    -0.8476        8.655360      -11.624845       -0.035751
  101    34     2     0.4238        9.426496      -11.053691       -0.317056
  102    34     2     0.4238        7.954961      -11.052274        0.390561
  103    35     1    -0.8476        3.219711       -2.653703        3.497224
  104    35     2     0.4238        2.370970       -3.161826        3.643678
  105    35     2     0.4238        3.228781       -2.280965        2.569258
  106    36     1    -0.8476        6.001295       10.245402       -0.334054
  107    36     2     0.4238        6.535259        9.649602        0.265867
  108    36     2     0.4238        6.077119       11.191014       -0.017498
  109    37     1    -0.8476        9.187218        0.097153       -3.106217
  110    37     2     0.4238       10.054394        0.165286       -3.599535
  111    37     2     0.4238        8.775260        1.005234       -3.029937
  112    38     1    -0.8476       -5.693348        2.728307        3.157683
  113    38     2     0.4238       -5.663798        3.483933        2.503347
  114    38     2     0.4238       -5.557344        1.863550        2.674117
  115    39     1    -0.8476       -3.073863       -4.072383        3.773908
  116    39     2     0.4238       -3.095270       -4.944978        4.261883
  117    39     2     0.4238       -3.827678       -4.039320        3.117549
  118    40     1    -0.8476        5.280016        6.901433       11.275455
  119    40     2     0.4238        5.912019        7.170499       10.548698
  120    40     2     0.4238        5.462474        5.954938       11.541904
  121    41     1    -0.8476        0.065958       -6.232906       -8.346038
  122    41     2     0.4238       -0.149954       -6.932825       -7.665233
  123    41     2     0.4238        0.461110       -5.435416       -7.889964
  124    42     1    -0.8476        4.194260        0.992549        2.454790
  125    42     2     0.4238        4.935459        0.972438        3.125774
  126    42     2     0.4238        4.264118        1.825874        1.906313
  127    43     1    -0.8476       -0.946734        4.924027       10.878810
  128    43     2     0.4238       -0.897194        4.134429       10.267189
  129    43     2     0.4238       -0.739966        5.756726       10.365003
  130    44     1    -0.8476      -11.577904       -5.327361       -1.620360
  131    44     2     0.4238      -11.426298       -4.367575       -1.384083
  132    44     2     0.4238      -12.491449       -5.433294       -2.013236
  133    45     1    -0.8476        6.492874       -1.298636       -9.841988
  134    45     2     0.4238        7.443588       -1.591148       -9.739129
  135    45     2     0.4238        6.463986       -0.313217      -10.010075
  136    46     1    -0.8476       -8.729879       -7.861988       -7.318889
  137    46     2     0.4238       -7.745414       -8.015655       -7.403836
  138    46     2     0.4238       -9.180062       -8.718586       -7.066475
  139    47     1    -0.8476       -4.889303       -3.053413      -11.187820
  140    47     2     0.4238       -4.977365       -2.249014      -11.775345
  141    47     2     0.4238       -5.574353       -3.733432      -11.449391
  142    48     1    -0.8476        7.233133       10.683797        6.531591
  143    48     2     0.4238        8.158712       10.458127        6.227654
  144    48     2     0.4238        6.837609       11.365819        5.916332
  145    49     1    -0.8476      -11.060322       -7.430436       -7.997081
  146    49     2     0.4238      -11.422870       -8.358075       -8.086780
  147    49     2     0.4238      -10.430406       -7.244718       -8.751304
  148    50     1    -0.8476        6.813302       -9.001822       10.896636
  149    50     2     0.4238        7.697013       -9.462457       10.813744
  150    50     2     0.4238        6.079432       -9.680230       10.860072
  151    51     1    -0.8476        8.909159       -2.853271       -7.848618
  152    51     2     0.4238        9.243121       -3.730110       -7.502752
  153    51     2     0.4238        8.036654       -2.633596       -7.412023
  154    52     1    -0.8476       -0.354477        8.794760       10.913579
  155    52     2     0.4238       -0.074824        9.386100       10.157199
  156    52     2     0.4238       -0.938069        9.310287       11.541106
  157    53     1    -0.8476      -12.504943      -10.576459        2.230133
  158    53     2     0.4238      -12.463471       -9.583853        2.116050
  159    53     2     0.4238      -11.900238      -10.851278        2.977758
  160    54     1    -0.8476       -8.207519        8.307467        1.246567
  161    54     2     0.4238       -7.266224        7.988253        1.356412
  162    54     2     0.4238       -8.202928        9.238995        0.882737
  163    55     1    -0.8476       -7.387897       -0.358204       -2.824536
  164    55     2     0.4238       -8.149172        0.273467       -2.970999
  165    55     2     0.4238       -7.364629       -0.634546       -1.863686
  166    56     1    -0.8476        2.440670       -6.819882       -3.320265
  167    56     2     0.4238        1.459217       -6.832402       -3.511560
  168    56     2     0.4238        2.651075       -6.056899       -2.708934
  169    57     1    -0.8476        0.726999       11.021359       11.359093
  170    57     2     0.4238        1.396307       11.500298       10.791075
  171    57     2     0.4238       -0.115345       11.558417       11.405622
  172    58     1    -0.8476        9.489451       -4.208101       -3.389540
  173    58     2     0.4238        8.546234       -3.958654       -3.170182
  174    58     2     0.4238        9.491068       -4.913871       -4.098076
  175    59     1    -0.8476        8.095302      -10.131494       -5.973943
  176    59     2     0.4238        7.115164      -10.012457       -5.815327
  177    59     2     0.4238        8.370576       -9.597250       -6.773284
  178    60     1    -0.8476       -6.814642        0.836576       -5.274631
  179    60     2     0.4238       -6.002344        0.997589       -4.714053
  180    60     2     0.4238       -7.603016        1.287272       -4.855731
  181    61     1    -0.8476       11.494372       -6.738385        1.596288
  182    61     2     0.4238       10.592975       -6.896381        1.999426
  183    61     2     0.4238       11.433549       -6.821834        0.601564
  184    62     1    -0.8476       -9.740105        5.389448      -12.438516
  185    62     2     0.4238      -10.194045        4.500410      -12.498098
  186    62     2     0.4238       -8.751689        5.254595      -12.367894
  187    63     1    -0.8476        2.953651       -2.050371        5.597614
  188    63     2     0.4238        3.656994       -1.394170        5.324282
  189    63     2     0.4238        2.059528       -1.729838        5.284659
  190    64     1    -0.8476        0.498891        4.826164        5.038334
  191    64     2     0.4238        1.335610        4.654550        5.558383
  192    64     2     0.4238       -0.116769        5.400438        5.578068
  193    65     1    -0.8476       -5.169805        4.770731       -2.367087
  194    65     2     0.4238       -4.541130        5.508332       -2.613484
  195    65     2     0.4238       -5.517003        4.337352       -3.198817
  196    66     1    -0.8476       -8.193406       -5.930106        7.791095
  197    66     2     0.4238       -8.862761       -6.470644        8.300783
  198    66     2     0.4238       -7.646487       -6.536091        7.213341
  199    67     1    -0.8476      -11.751275        3.761949       -6.373103
  200    67     2     0.4238      -12.307892        4.384019       -6.923745
  201    67     2     0.4238      -10.808637        3.774639       -6.706883
  202    68     1    -0.8476        4.912541        3.287508       -6.230665
  203    68     2     0.4238        4.405350        2.560297       -6.693181
  204    68     2     0.4238        5.768186        2.918025       -5.868047
  205    69     1    -0.8476        5.433096        4.128931        5.391919
  206    69     2     0.4238        4.466615        4.157065        5.136727
  207    69     2     0.4238        5.513497        3.950446        6.372642
  208    70     1    -0.8476       -4.505356       -1.391483        2.228953
  209    70     2     0.4238       -5.143797       -2.089437        2.553378
  210    70     2     0.4238       -3.842088       -1.809636        1.608178
  211    71     1    -0.8476        6.114899       -7.828238        6.126950
  212    71     2     0.4238        6.835662       -8.460419        6.411285
  213    71     2     0.4238        5.275097       -8.340279        5.946161
  214    72     1    -0.8476        8.232150        6.604261      -10.286789
  215    72     2     0.4238        9.108843        7.056310      -10.122286
  216    72     2     0.4238        8.332726        5.619858      -10.141967
  217    73     1    -0.8476        3.673031        6.320535        3.358175
  218    73     2     0.4238        3.974192        5.599251        2.734435
  219    73     2     0.4238        4.241355        7.132908        3.227040
  220    74     1    -0.8476       -9.199858      -10.321098       -5.105057
  221    74     2     0.4238       -9.491679      -11.038964       -4.472990
  222    74     2     0.4238       -9.929290       -9.643425       -5.199010
  223    75     1    -0.8476       10.269009       11.329512       -1.549330
  224    75     2     0.4238        9.898688       10.404781       -1.637270
  225    75     2     0.4238       11.266051       11.297056       -1.619979
  226    76     1    -0.8476        7.176308        9.807697       -8.374668
  227    76     2     0.4238        7.339849       10.784992       -8.509382
  228    76     2     0.4238        6.209270        9.657137       -8.168980
  229    77     1    -0.8476        1.847197        6.601406        4.576163
  230    77     2     0.4238        1.497923        7.503380        4.322291
  231    77     2     0.4238        2.264551        6.649273        5.483722
  232    78     1    -0.8476       -5.339870      -11.152528       -2.078650
  233    78     2     0.4238       -5.958858      -11.931487       -1.978268
  234    78     2     0.4238       -4.616415      -11.383758       -2.729253
  235    79     1    -0.8476        0.388524       -2.829045       -6.990433
  236    79     2     0.4238        0.688921       -3.689847       -6.579603
  237    79     2     0.4238        1.170926       -2.212959       -7.082205
  238    80     1    -0.8476        1.325154       -6.061687       11.106981
  239    80     2     0.4238        1.753950       -5.383953       10.509645
  240    80     2     0.4238        0.392758       -5.772150       11.323645
  241    81     1    -0.8476        0.945023        2.524739        0.994639
  242    81     2     0.4238        0.553568        1.713945        1.429812
  243    81     2     0.4238        0.212536        3.070805        0.587931
  244    82     1    -0.8476        6.148276        1.107827       -7.060178
  245    82     2     0.4238        5.403991        0.601520       -6.624642
  246    82     2     0.4238        6.848402        0.466366       -7.374006
  247    83     1    -0.8476        9.485334       -6.760925        7.966573
  248    83     2     0.4238       10.270588       -6.246714        7.621665
  249    83     2     0.4238        9.799933       -7.453395        8.615920
  250    84     1    -0.8476        7.299090        1.087029        4.626886
  251    84     2     0.4238        7.063453        0.115188        4.628060
  252    84     2     0.4238        8.293983        1.188444        4.620568
  253    85     1    -0.8476       -1.983660        2.602824        1.651554
  254    85     2     0.4238       -1.604930        1.914166        1.033238
  255    85     2     0.4238       -1.831812        3.513980        1.268310
  256    86     1    -0.8476        8.826882        7.239216        7.430102
  257    86     2     0.4238        7.851709        7.220754        7.650773
  258    86     2     0.4238        8.996184        6.674876        6.622021
  259    87     1    -0.8476        1.096767      -11.810380        6.108326
  260    87     2     0.4238        0.455864      -12.116277        6.812365
  261    87     2     0.4238        0.846595      -12.218516        5.230273
  262    88     1    -0.8476        7.828181       -6.182470       -2.715531
  263    88     2     0.4238        7.093808       -5.727862       -3.219543
  264    88     2     0.4238        7.883740       -5.801790       -1.792420
  265    89     1    -0.8476        4.603450        5.937201       -7.354650
  266    89     2     0.4238        3.703329        6.372743       -7.363952
  267    89     2     0.4238        5.247345        6.514092       -6.851923
  268    90     1    -0.8476       -5.463907        8.765176       -1.087805
  269    90     2     0.4238       -4.688072        9.206188       -0.636599
  270    90     2     0.4238       -6.282649        8.873411       -0.523814
  271    91     1    -0.8476        8.321706        4.235841        8.846836
  272    91     2     0.4238        8.042208        3.495059        8.235998
  273    91     2     0.4238        7.677155        4.996092        8.764933
  274    92     1    -0.8476       -2.807855       -3.282383       -3.614839
  275    92     2     0.4238       -3.089489       -4.240736       -3.662193
  276    92     2     0.4238       -3.557951       -2.732653       -3.247021
  277    93     1    -0.8476       -3.419964       -8.518083        8.696420
  278    93     2     0.4238       -2.490464       -8.429023        9.054329
  279    93     2     0.4238       -4.067586       -8.127363        9.350684
  280    94     1    -0.8476       -0.249780        1.689599       -5.649146
  281    94     2     0.4238       -1.064206        1.109367       -5.642614
  282    94     2     0.4238        0.545299        1.150653       -5.370714
  283    95     1    -0.8476       10.557410        4.392419       -0.606470
  284    95     2     0.4238        9.695570        4.897606       -0.561539
  285    95     2     0.4238       11.320007        5.038007       -0.648891
  286    96     1    -0.8476       -0.319884       -6.424428        1.078142
  287    96     2     0.4238       -0.559535       -7.372486        0.868969
  288    96     2     0.4238        0.615418       -6.387293        1.430234
  289    97     1    -0.8476       -1.316084       -4.879406       -0.119880
  290    97     2     0.4238       -1.951493       -5.016288        0.640066
  291    97     2     0.4238       -0.582810       -4.262457        0.166163
  292    98     1    -0.8476       -2.416958        7.071727      -10.415291
  293    98     2     0.4238       -3.303146        7.528543      -10.337899
  294    98     2     0.4238       -1.686943        7.724707      -10.213217
  295    99     1    -0.8476        1.618666        0.827348        4.610037
  296    99     2     0.4238        2.469891        0.303320        4.581576
  297    99     2     0.4238        0.841034        0.198737        4.626575
  298   100     1    -0.8476        5.823612       -2.250715       10.652611
  299   100     2     0.4238        6.521811       -2.927859       10.884978
  300   100     2     0.4238        5.771857       -2.153398        9.658635
  301   101     1    -0.8476        7.513127       -5.738086       -6.656588
  302   101     2     0.4238        8.450089       -5.978028       -6.402560
  303   101     2     0.4238        7.439806       -4.746088       -6.760037
  304   102     1    -0.8476       10.241195       -0.991281      -11.689982
  305   102     2     0.4238       11.147851       -1.113220      -12.093845
  306   102     2     0.4238       10.335689       -0.628391      -10.762879
  307   103     1    -0.8476        4.022754       11.521142        3.805797
  308   103     2     0.4238        4.649048       10.820259        4.147145
  309   103     2     0.4238        3.163723       11.092339        3.525921
  310   104     1    -0.8476       -3.835835       -4.489661        9.287046
  311   104     2     0.4238       -3.658842       -3.505668        9.307821
  312   104     2     0.4238       -4.821428       -4.649610        9.230816
  313   105     1    -0.8476      -11.149662        7.446811        1.167788
  314   105     2     0.4238      -10.473438        7.809206        0.526391
  315   105     2     0.4238      -11.177879        8.024521        1.983627
  316   106     1    -0.8476       -0.311637        9.919352       -8.691133
  317   106     2     0.4238       -0.228027       10.863274       -9.010539
  318   106     2     0.4238       -0.344039        9.303133       -9.478129
  319   107     1    -0.8476       -3.805226        3.840117        9.695368
  320   107     2     0.4238       -3.011554        4.447326        9.732544
  321   107     2     0.4238       -4.495196        4.153604       10.347905
  322   108     1    -0.8476        0.995492        3.293306       11.012131
  323   108     2     0.4238        1.876436        3.283199       11.485243
  324   108     2     0.4238        0.344662        2.718136       11.507851
  325   109     1    -0.8476       -4.657386      -10.140225        5.805335
  326   109     2     0.4238       -3.984970       -9.461398        6.100379
  327   109     2     0.4238       -4.184235      -10.927774        5.410325
  328   110     1    -0.8476        9.926063        5.351125       11.473192
  329   110     2     0.4238       10.925096        5.389717       11.494292
  330   110     2     0.4238        9.556938        6.280567       11.468421
  331   111     1    -0.8476        1.759352       -0.606237       11.355165
  332   111     2     0.4238        0.840962       -0.274797       11.139043
  333   111     2     0.4238        1.730454       -1.594979       11.502448
  334   112     1    -0.8476        8.387664      -11.690059       10.969433
  335   112     2     0.4238        9.338995      -11.658956       11.276028
  336   112     2     0.4238        8.273811      -12.435163       10.312169
  337   113     1    -0.8476       -9.513228       -1.939968        8.451500
  338   113     2     0.4238       -8.981899       -2.400645        7.740539
  339   113     2     0.4238      -10.001663       -1.164054        8.052090
  340   114     1    -0.8476       -1.090441        9.611982        6.754958
  341   114     2     0.4238       -1.138136       10.480319        7.248633
  342   114     2     0.4238       -0.301400        9.621125        6.140573
  343   115     1    -0.8476       -4.887152        7.691750       -3.515321
  344   115     2     0.4238       -4.361538        7.702869       -2.664670
  345   115     2     0.4238       -4.286969        7.439129       -4.274334
  346   116     1    -0.8476       -4.710191        0.502929       -9.674030
  347   116     2     0.4238       -4.852512       -0.162972      -10.406369
  348   116     2     0.4238       -5.098190        0.149646       -8.822687
  349   117     1    -0.8476       -1.593669        8.434968       -3.514536
  350   117     2     0.4238       -1.587371        7.434990       -3.512535
  351   117     2     0.4238       -0.758411        8.774103       -3.081560
  352   118     1    -0.8476        4.947362       -5.360060       -6.885570
  353   118     2     0.4238        4.611071       -6.175519       -7.356670
  354   118     2     0.4238        5.384894       -5.628054       -6.027152
  355   119     1    -0.8476        5.932327        1.790626        6.360971
  356   119     2     0.4238        5.553199        0.991712        6.827875
  357   119     2     0.4238        5.457306        1.924529        5.491164
  358   120     1    -0.8476        4.272415       -8.890383        1.006904
  359   120     2     0.4238        3.573837       -8.196359        1.181026
  360   120     2     0.4238        4.243112       -9.158048        0.043766
  361   121     1    -0.8476        6.748092        7.689226        4.918270
  362   121     2     0.4238        6.923564        8.666172        5.039871
  363   121     2     0.4238        5.772418        7.544117        4.753525
  364   122     1    -0.8476        6.246383        2.900497       -9.841203
  365   122     2     0.4238        5.972723        3.158745      -10.767712
  366   122     2     0.4238        6.481130        3.722385       -9.322038
  367   123     1    -0.8476       -9.508639        3.343630       -4.425630
  368   123     2     0.4238       -8.589229        3.494797       -4.062542
  369   123     2     0.4238       -9.882050        4.209847       -4.757851
  370   124     1    -0.8476        9.000372        3.028493       -9.915107
  371   124     2     0.4238        9.316895        3.701333      -10.583763
  372   124     2     0.4238        8.723666        3.497398       -9.076239
  373   125     1    -0.8476        1.161391        6.022543        1.369624
  374   125     2     0.4238        0.804901        5.104850        1.194254
  375   125     2     0.4238        2.153236        5.977241        1.489323
  376   126     1    -0.8476       -4.518818        2.558607       -0.238031
  377   126     2     0.4238       -5.011746        2.508698        0.630607
  378   126     2     0.4238       -5.003797        3.172127       -0.861350
  379   127     1    -0.8476       -7.105646        3.213334        0.839324
  380   127     2     0.4238       -7.018412        4.205570        0.927967
  381   127     2     0.4238       -8.073587        2.962036        0.848174
  382   128     1    -0.8476        8.948467       10.716142        1.495080
  383   128     2     0.4238        9.850077       11.011050        1.178649
  384   128     2     0.4238        8.332758       11.503558        1.526957
  385   129     1    -0.8476       -3.457919        1.871527       -3.298192
  386   129     2     0.4238       -4.085542        2.103008       -2.554884